Topology written by topology at 2020-02-24 13:20:11.347422

100 atoms
0 bonds
0 angles
0 dihedrals
1 atom types

0.000000 30.000000 xlo xhi
0.000000 30.000000 ylo yhi
0.000000 30.000000 zlo zhi

Masses

1	39.948000	# Ar

Pair Coeffs # lj

1	0.00000	3.00000

Atoms

1	0	1	0.000000	26.135719	17.374172	12.467811
2	0	1	0.000000	27.917291	16.215238	13.712141
3	0	1	0.000000	22.795449	23.122733	7.757992
4	0	1	0.000000	3.643797	12.218168	23.257423
5	0	1	0.000000	8.088171	1.663572	23.087266
6	0	1	0.000000	6.177431	22.398378	2.274092
7	0	1	0.000000	23.403443	13.845641	24.975276
8	0	1	0.000000	10.010573	24.574880	9.774271
9	0	1	0.000000	12.290130	25.191173	24.116087
10	0	1	0.000000	17.086727	17.489768	3.725558
11	0	1	0.000000	26.961785	26.947835	24.384965
12	0	1	0.000000	26.056590	26.499336	13.327324
13	0	1	0.000000	27.019765	2.702432	18.359642
14	0	1	0.000000	25.109547	16.201288	8.683268
15	0	1	0.000000	9.129193	22.367518	6.908785
16	0	1	0.000000	15.815470	17.620439	9.552490
17	0	1	0.000000	0.288412	11.757886	24.685099
18	0	1	0.000000	23.692518	0.155203	27.778911
19	0	1	0.000000	3.393973	6.446605	0.619659
20	0	1	0.000000	9.309393	23.166208	25.872204
21	0	1	0.000000	15.776770	6.278032	11.430602
22	0	1	0.000000	24.409447	0.174751	11.160595
23	0	1	0.000000	23.547378	3.478234	11.181929
24	0	1	0.000000	26.646692	13.334246	0.654111
25	0	1	0.000000	20.178439	26.690551	4.404482
26	0	1	0.000000	21.128225	16.535945	27.485983
27	0	1	0.000000	10.825344	18.280220	22.584890
28	0	1	0.000000	18.494598	10.292518	9.087469
29	0	1	0.000000	25.818254	19.265803	17.060302
30	0	1	0.000000	26.337194	3.949333	23.042799
31	0	1	0.000000	2.378616	27.709028	14.186063
32	0	1	0.000000	17.688420	22.952038	5.401323
33	0	1	0.000000	4.587453	5.594682	9.107700
34	0	1	0.000000	8.595849	19.816993	7.420326
35	0	1	0.000000	12.819355	21.772113	27.524576
36	0	1	0.000000	20.129143	9.999255	23.180081
37	0	1	0.000000	10.076978	16.739017	2.140250
38	0	1	0.000000	11.093365	9.807648	0.067749
39	0	1	0.000000	17.005306	16.219260	11.155972
40	0	1	0.000000	3.488718	24.567326	18.691485
41	0	1	0.000000	18.573329	4.313386	20.387348
42	0	1	0.000000	27.625096	26.628341	16.454860
43	0	1	0.000000	16.850442	0.328023	22.275838
44	0	1	0.000000	3.286366	25.964766	22.293831
45	0	1	0.000000	24.926659	15.536972	19.150762
46	0	1	0.000000	27.213471	5.616990	16.300903
47	0	1	0.000000	12.217640	27.485715	23.932346
48	0	1	0.000000	26.184407	15.052128	26.373611
49	0	1	0.000000	0.850505	7.302020	3.371471
50	0	1	0.000000	3.228956	17.262029	25.109668
51	0	1	0.000000	1.549763	8.508180	26.612031
52	0	1	0.000000	9.146094	2.758827	13.452095
53	0	1	0.000000	20.151608	4.653640	6.329519
54	0	1	0.000000	12.626436	19.746722	9.551159
55	0	1	0.000000	3.338765	16.765793	18.795766
56	0	1	0.000000	8.276316	9.875221	20.378416
57	0	1	0.000000	5.674216	22.424422	9.473172
58	0	1	0.000000	21.949755	0.052847	20.153001
59	0	1	0.000000	11.449968	22.404216	0.564152
60	0	1	0.000000	1.562571	0.697633	27.370775
61	0	1	0.000000	27.453688	25.566619	22.290627
62	0	1	0.000000	2.928768	21.801426	4.435680
63	0	1	0.000000	0.931833	24.635958	9.004025
64	0	1	0.000000	16.827201	4.026641	11.295506
65	0	1	0.000000	20.457167	10.301224	16.465395
66	0	1	0.000000	12.368656	4.240239	0.534000
67	0	1	0.000000	5.050101	3.911377	18.992278
68	0	1	0.000000	7.681576	18.479587	20.855637
69	0	1	0.000000	24.314041	14.076737	22.928258
70	0	1	0.000000	25.162224	21.104072	1.190932
71	0	1	0.000000	0.470646	19.090896	16.242568
72	0	1	0.000000	27.179200	27.314425	6.469399
73	0	1	0.000000	9.824556	26.942283	4.476661
74	0	1	0.000000	7.706791	9.115413	1.825452
75	0	1	0.000000	1.475126	2.180167	16.729940
76	0	1	0.000000	13.450349	7.313748	23.953939
77	0	1	0.000000	13.773137	26.110990	20.850456
78	0	1	0.000000	5.625563	0.078029	21.784589
79	0	1	0.000000	7.433912	6.632246	0.762477
80	0	1	0.000000	10.724072	6.278502	12.982947
81	0	1	0.000000	26.006772	20.885199	3.231232
82	0	1	0.000000	18.160618	14.644800	27.651484
83	0	1	0.000000	15.068296	24.362447	10.936559
84	0	1	0.000000	24.261153	12.837205	27.072334
85	0	1	0.000000	1.518170	5.133807	2.481464
86	0	1	0.000000	5.459936	17.414247	21.614809
87	0	1	0.000000	18.159099	18.506783	27.744823
88	0	1	0.000000	27.800024	5.401900	6.243431
89	0	1	0.000000	8.273473	21.087182	25.806455
90	0	1	0.000000	21.159975	17.797160	13.522144
91	0	1	0.000000	5.805866	0.907477	7.507326
92	0	1	0.000000	10.193704	12.202867	1.200078
93	0	1	0.000000	25.832632	21.275028	25.196675
94	0	1	0.000000	17.745825	26.807236	25.710955
95	0	1	0.000000	23.508038	1.958440	13.628412
96	0	1	0.000000	5.581685	14.318761	19.412216
97	0	1	0.000000	27.119436	20.461564	6.795342
98	0	1	0.000000	26.461959	8.467607	21.885561
99	0	1	0.000000	10.531839	8.997196	16.337819
100	0	1	0.000000	14.718152	1.780721	10.147001
