charmm.lammps - created by mBuild; units = real

4 atoms
3 bonds
3 angles
0 dihedrals
1 impropers

4 atom types
3 bond types
3 angle types
1 improper types

0.000000 25.000000 xlo xhi
0.000000 15.000000 ylo yhi
0.000000 6.000000 zlo zhi

Masses

1	12.011000	# CL
2	12.011000	# CTL2
3	15.994000	# OBL
4	15.994000	# OHL

Pair Coeffs # lj
#	epsilon (kcal/mol)		sigma (Angstrom)
1	0.07000		3.56359		# CL
2	0.05600		3.58141		# CTL2
3	0.12000		3.02906		# OBL
4	0.15210		3.15378		# OHL

Bond Coeffs # harmonic
#	k(kcal/mol/angstrom^2)		req(angstrom)
1	200.0		1.522		# CL	CTL2
2	750.0		1.22		# CL	OBL
3	230.0		1.4		# CL	OHL

Angle Coeffs # charmm
#	k(kcal/mol/rad^2)		theteq(deg)	k(kcal/mol/angstrom^2)	req(angstrom)
1	70.0	125.00000	20.00000	2.44200
2	55.0	110.50000	0.00000	0.00000
3	50.0	123.00000	210.00000	2.26200

Improper Coeffs # harmonic
#k, phi
1	100.00000	0.00000	# CL	CTL2	OBL	OHL

Atoms # full

1	1	2	0.000000	-10.000000	0.000000	0.000000
2	1	1	0.000000	0.000000	0.000000	0.000000
3	1	3	0.000000	10.000000	0.000000	0.000000
4	1	4	0.000000	0.000000	10.000000	0.000000

Bonds

1	1	1	2
2	2	2	3
3	3	2	4

Angles

1	1	1	2	3
2	2	1	2	4
3	3	3	2	4

Impropers

1	1	2	1	3	4
