typed_ethane.lammps - created by mBuild; units = real

8 atoms
7 bonds
12 angles
9 dihedrals
0 impropers

2 atom types
2 bond types
2 angle types
1 dihedral types

0.000000 7.140000 xlo xhi
0.000000 7.938000 ylo yhi
0.000000 6.646000 zlo zhi
0.000000 0.000000 0.000000 xy xz yz

Masses

1	12.010780	# opls_135
2	1.007947	# opls_140

Pair Coeffs # lj
#	epsilon (kcal/mol)		sigma (Angstrom)
1	0.06600		3.50000		# opls_135
2	0.03000		2.50000		# opls_140

Bond Coeffs # harmonic
#	k(kcal/mol/angstrom^2)		req(angstrom)
1	268.0		1.529		# opls_135	opls_135
2	340.0		1.09		# opls_135	opls_140

Angle Coeffs # harmonic
#	k(kcal/mol/rad^2)		theteq(deg)
1	37.5		110.70000	# opls_135	opls_135	opls_140
2	33.0		107.80000	# opls_140	opls_135	opls_140

Dihedral Coeffs # opls
#	f1(kcal/mol)	f2(kcal/mol)	f3(kcal/mol)	f4(kcal/mol)
1	-0.00000	-0.00000		0.30000		-0.00000	# opls_140	opls_135	opls_135	opls_140

Atoms # full

1	1	1	-0.180000	0.000000	-1.400000	-0.000000
2	1	2	0.060000	-1.070000	-1.400000	0.000000
3	1	2	0.060000	0.357000	-2.169000	0.653000
4	1	2	0.060000	0.357000	-1.581000	-0.993000
5	1	1	-0.180000	0.000000	0.000000	0.000000
6	1	2	0.060000	1.070000	0.000000	0.000000
7	1	2	0.060000	-0.357000	0.769000	0.653000
8	1	2	0.060000	-0.357000	0.181000	-0.993000

Bonds

1	2	1	2
2	2	1	3
3	2	1	4
4	1	1	5
5	2	5	6
6	2	5	7
7	2	5	8

Angles

1	1	1	5	6
2	1	1	5	7
3	1	1	5	8
4	2	2	1	3
5	2	2	1	4
6	1	2	1	5
7	2	3	1	4
8	1	3	1	5
9	1	4	1	5
10	2	6	5	7
11	2	6	5	8
12	2	7	5	8

Dihedrals

1	1	2	1	5	6
2	1	2	1	5	7
3	1	2	1	5	8
4	1	3	1	5	6
5	1	3	1	5	7
6	1	3	1	5	8
7	1	4	1	5	6
8	1	4	1	5	7
9	1	4	1	5	8
